<?xml version="1.0" encoding="UTF-8"?>

<!-- generated on 2026-01-13T16:03:38.531243+01:00 by Eclipse SUMO libsumo 1.25.0
<libsumoConfiguration xmlns:xsi="http://www.w3.org/2001/XMLSchema-instance" xsi:noNamespaceSchemaLocation="http://sumo.dlr.de/xsd/libsumoConfiguration.xsd">

    <input>
        <net-file value="/home/julesbompard/Documents/Projets/sumo-experiments/src/sumo_experiments/preset_networks/bologna/acosta/acosta_buslanes.net.xml"/>
        <route-files value="/home/julesbompard/Documents/Projets/sumo-experiments/src/sumo_experiments/preset_networks/bologna/acosta/acosta_83163.rou.xml,/home/julesbompard/Documents/Projets/sumo-experiments/src/sumo_experiments/preset_networks/bologna/acosta/acosta_busses.rou.xml"/>
        <additional-files value="/home/julesbompard/Documents/Projets/sumo-experiments/src/sumo_experiments/preset_networks/bologna/acosta/acosta_tls.add.xml,/home/julesbompard/Documents/Projets/sumo-experiments/src/sumo_experiments/preset_networks/bologna/acosta/acosta_vtypes.add.xml,/home/julesbompard/Documents/Projets/sumo-experiments/src/sumo_experiments/preset_networks/bologna/acosta/acosta_detectors.add.xml,/home/julesbompard/Documents/Projets/sumo-experiments/src/sumo_experiments/preset_networks/bologna/acosta/acosta_bus_stops.add.xml"/>
    </input>

    <output>
        <tripinfo-output value="/home/julesbompard/Documents/Projets/sumo-experiments/src/sumo_experiments/preset_networks/bologna/acosta/tripinfos.xml"/>
    </output>

    <processing>
        <threads value="8"/>
        <time-to-teleport value="500"/>
    </processing>

    <report>
        <no-warnings value="true"/>
        <log value="/home/julesbompard/Documents/Projets/sumo-experiments/src/sumo_experiments/preset_networks/bologna/acosta/sumo_log.txt"/>
        <no-step-log value="true"/>
    </report>

    <random_number>
        <seed value="9"/>
    </random_number>

    <gui_only>
        <gui-settings-file value="/home/julesbompard/Documents/Projets/sumo-experiments/src/sumo_experiments/preset_networks/bologna/acosta/settings.gui.xml"/>
    </gui_only>

</libsumoConfiguration>
-->

<detector xmlns:xsi="http://www.w3.org/2001/XMLSchema-instance" xsi:noNamespaceSchemaLocation="http://sumo.dlr.de/xsd/det_e2_file.xsd">
   <interval begin="0.00" end="3600.00" id="34_1" sampledSeconds="11381.12" nVehEntered="347" nVehLeft="343" nVehSeen="347" meanSpeed="0.75" meanTimeLoss="30.85" meanOccupancy="63.20" maxOccupancy="82.38" meanMaxJamLengthInVehicles="2.74" meanMaxJamLengthInMeters="13.69" maxJamLengthInVehicles="4" maxJamLengthInMeters="20.00" jamLengthInVehiclesSum="9849" jamLengthInMetersSum="49296.38" meanHaltingDuration="53.67" maxHaltingDuration="244.00" haltingDurationSum="10036.00" meanIntervalHaltingDuration="53.67" maxIntervalHaltingDuration="244.00" intervalHaltingDurationSum="10036.00" startedHalts="187.00" meanVehicleNumber="3.26" maxVehicleNumber="4" />
   <interval begin="0.00" end="3600.00" id="34_2" sampledSeconds="6539.24" nVehEntered="284" nVehLeft="284" nVehSeen="284" meanSpeed="1.08" meanTimeLoss="20.71" meanOccupancy="35.82" maxOccupancy="80.18" meanMaxJamLengthInVehicles="1.40" meanMaxJamLengthInMeters="6.88" maxJamLengthInVehicles="4" maxJamLengthInMeters="20.00" jamLengthInVehiclesSum="5025" jamLengthInMetersSum="24779.38" meanHaltingDuration="37.15" maxHaltingDuration="106.00" haltingDurationSum="5164.00" meanIntervalHaltingDuration="37.15" maxIntervalHaltingDuration="106.00" intervalHaltingDurationSum="5164.00" startedHalts="139.00" meanVehicleNumber="1.90" maxVehicleNumber="4" />
   <interval begin="0.00" end="3600.00" id="34_3" sampledSeconds="4899.61" nVehEntered="456" nVehLeft="453" nVehSeen="456" meanSpeed="2.06" meanTimeLoss="9.09" meanOccupancy="28.95" maxOccupancy="79.35" meanMaxJamLengthInVehicles="0.97" meanMaxJamLengthInMeters="5.01" maxJamLengthInVehicles="4" maxJamLengthInMeters="20.00" jamLengthInVehiclesSum="3508" jamLengthInMetersSum="18046.37" meanHaltingDuration="25.71" maxHaltingDuration="495.00" haltingDurationSum="3239.00" meanIntervalHaltingDuration="25.71" maxIntervalHaltingDuration="495.00" intervalHaltingDurationSum="3239.00" startedHalts="157.00" meanVehicleNumber="1.48" maxVehicleNumber="4" />
   <interval begin="0.00" end="3600.00" id="34_4" sampledSeconds="3586.44" nVehEntered="451" nVehLeft="450" nVehSeen="451" meanSpeed="2.74" meanTimeLoss="6.36" meanOccupancy="21.11" maxOccupancy="81.88" meanMaxJamLengthInVehicles="0.63" meanMaxJamLengthInMeters="3.25" maxJamLengthInVehicles="4" maxJamLengthInMeters="19.38" jamLengthInVehiclesSum="2258" jamLengthInMetersSum="11711.58" meanHaltingDuration="19.70" maxHaltingDuration="56.00" haltingDurationSum="2364.00" meanIntervalHaltingDuration="19.70" maxIntervalHaltingDuration="56.00" intervalHaltingDurationSum="2364.00" startedHalts="131.00" meanVehicleNumber="1.11" maxVehicleNumber="4" />
   <interval begin="0.00" end="3600.00" id="34_5" sampledSeconds="2506.73" nVehEntered="214" nVehLeft="213" nVehSeen="214" meanSpeed="2.01" meanTimeLoss="10.08" meanOccupancy="14.93" maxOccupancy="81.88" meanMaxJamLengthInVehicles="0.48" meanMaxJamLengthInMeters="2.52" maxJamLengthInVehicles="4" maxJamLengthInMeters="19.38" jamLengthInVehiclesSum="1734" jamLengthInMetersSum="9076.20" meanHaltingDuration="19.06" maxHaltingDuration="58.00" haltingDurationSum="1830.00" meanIntervalHaltingDuration="19.06" maxIntervalHaltingDuration="58.00" intervalHaltingDurationSum="1830.00" startedHalts="96.00" meanVehicleNumber="0.75" maxVehicleNumber="4" />
   <interval begin="0.00" end="3600.00" id="34_6" sampledSeconds="3767.32" nVehEntered="284" nVehLeft="284" nVehSeen="284" meanSpeed="1.87" meanTimeLoss="11.47" meanOccupancy="20.90" maxOccupancy="82.48" meanMaxJamLengthInVehicles="0.73" meanMaxJamLengthInMeters="3.64" maxJamLengthInVehicles="4" maxJamLengthInMeters="20.00" jamLengthInVehiclesSum="2619" jamLengthInMetersSum="13090.74" meanHaltingDuration="31.33" maxHaltingDuration="73.00" haltingDurationSum="2569.00" meanIntervalHaltingDuration="31.33" maxIntervalHaltingDuration="73.00" intervalHaltingDurationSum="2569.00" startedHalts="94.00" meanVehicleNumber="1.12" maxVehicleNumber="4" />
   <interval begin="0.00" end="3600.00" id="34_7" sampledSeconds="1337.84" nVehEntered="610" nVehLeft="609" nVehSeen="610" meanSpeed="11.17" meanTimeLoss="0.39" meanOccupancy="7.21" maxOccupancy="60.00" meanMaxJamLengthInVehicles="0.00" meanMaxJamLengthInMeters="0.01" maxJamLengthInVehicles="2" maxJamLengthInMeters="12.55" jamLengthInVehiclesSum="6" jamLengthInMetersSum="24.86" meanHaltingDuration="3.00" maxHaltingDuration="3.00" haltingDurationSum="3.00" meanIntervalHaltingDuration="3.00" maxIntervalHaltingDuration="3.00" intervalHaltingDurationSum="3.00" startedHalts="3.00" meanVehicleNumber="0.54" maxVehicleNumber="3" />
   <interval begin="0.00" end="3600.00" id="34_8" sampledSeconds="755.04" nVehEntered="429" nVehLeft="428" nVehSeen="429" meanSpeed="12.71" meanTimeLoss="0.16" meanOccupancy="4.19" maxOccupancy="38.15" meanMaxJamLengthInVehicles="0.00" meanMaxJamLengthInMeters="0.00" maxJamLengthInVehicles="0" maxJamLengthInMeters="0.00" jamLengthInVehiclesSum="0" jamLengthInMetersSum="0.00" meanHaltingDuration="0.00" maxHaltingDuration="0.00" haltingDurationSum="0.00" meanIntervalHaltingDuration="0.00" maxIntervalHaltingDuration="0.00" intervalHaltingDurationSum="0.00" startedHalts="0.00" meanVehicleNumber="0.32" maxVehicleNumber="2" />
   <interval begin="0.00" end="3600.00" id="34_9" sampledSeconds="40.33" nVehEntered="59" nVehLeft="59" nVehSeen="59" meanSpeed="13.83" meanTimeLoss="0.05" meanOccupancy="0.07" maxOccupancy="25.00" meanMaxJamLengthInVehicles="0.00" meanMaxJamLengthInMeters="0.00" maxJamLengthInVehicles="0" maxJamLengthInMeters="0.00" jamLengthInVehiclesSum="0" jamLengthInMetersSum="0.00" meanHaltingDuration="0.00" maxHaltingDuration="0.00" haltingDurationSum="0.00" meanIntervalHaltingDuration="0.00" maxIntervalHaltingDuration="0.00" intervalHaltingDurationSum="0.00" startedHalts="0.00" meanVehicleNumber="0.02" maxVehicleNumber="1" />
   <interval begin="0.00" end="3600.00" id="34_10" sampledSeconds="11380.20" nVehEntered="347" nVehLeft="343" nVehSeen="347" meanSpeed="0.75" meanTimeLoss="30.85" meanOccupancy="63.25" maxOccupancy="82.46" meanMaxJamLengthInVehicles="2.74" meanMaxJamLengthInMeters="13.69" maxJamLengthInVehicles="4" maxJamLengthInMeters="19.98" jamLengthInVehiclesSum="9849" jamLengthInMetersSum="49295.40" meanHaltingDuration="53.67" maxHaltingDuration="244.00" haltingDurationSum="10036.00" meanIntervalHaltingDuration="53.67" maxIntervalHaltingDuration="244.00" intervalHaltingDurationSum="10036.00" startedHalts="187.00" meanVehicleNumber="3.26" maxVehicleNumber="4" />
   <interval begin="0.00" end="3600.00" id="34_11" sampledSeconds="54608.86" nVehEntered="377" nVehLeft="347" nVehSeen="377" meanSpeed="1.23" meanTimeLoss="132.06" meanOccupancy="39.82" maxOccupancy="78.06" meanMaxJamLengthInVehicles="12.46" meanMaxJamLengthInMeters="75.74" maxJamLengthInVehicles="30" maxJamLengthInMeters="180.00" jamLengthInVehiclesSum="45988" jamLengthInMetersSum="279227.87" meanHaltingDuration="65.46" maxHaltingDuration="367.00" haltingDurationSum="46605.00" meanIntervalHaltingDuration="65.46" maxIntervalHaltingDuration="367.00" intervalHaltingDurationSum="46605.00" startedHalts="737.00" meanVehicleNumber="15.27" maxVehicleNumber="30" />
   <interval begin="0.00" end="3600.00" id="34_12" sampledSeconds="27321.29" nVehEntered="284" nVehLeft="284" nVehSeen="284" meanSpeed="1.38" meanTimeLoss="86.13" meanOccupancy="28.27" maxOccupancy="78.42" meanMaxJamLengthInVehicles="5.57" meanMaxJamLengthInMeters="33.90" maxJamLengthInVehicles="21" maxJamLengthInMeters="127.54" jamLengthInVehiclesSum="20086" jamLengthInMetersSum="122278.42" meanHaltingDuration="34.64" maxHaltingDuration="106.00" haltingDurationSum="20683.00" meanIntervalHaltingDuration="34.64" maxIntervalHaltingDuration="106.00" intervalHaltingDurationSum="20683.00" startedHalts="597.00" meanVehicleNumber="7.67" maxVehicleNumber="21" />
   <interval begin="0.00" end="3600.00" id="34_13" sampledSeconds="8482.49" nVehEntered="618" nVehLeft="612" nVehSeen="618" meanSpeed="5.14" meanTimeLoss="8.50" meanOccupancy="14.16" maxOccupancy="71.81" meanMaxJamLengthInVehicles="1.09" meanMaxJamLengthInMeters="6.29" maxJamLengthInVehicles="9" maxJamLengthInMeters="53.81" jamLengthInVehiclesSum="3956" jamLengthInMetersSum="22729.76" meanHaltingDuration="23.16" maxHaltingDuration="495.00" haltingDurationSum="3590.00" meanIntervalHaltingDuration="23.16" maxIntervalHaltingDuration="495.00" intervalHaltingDurationSum="3590.00" startedHalts="211.00" meanVehicleNumber="2.50" maxVehicleNumber="12" />
   <interval begin="0.00" end="3600.00" id="34_14" sampledSeconds="5583.58" nVehEntered="633" nVehLeft="631" nVehSeen="633" meanSpeed="5.75" meanTimeLoss="5.15" meanOccupancy="9.09" maxOccupancy="41.57" meanMaxJamLengthInVehicles="0.67" meanMaxJamLengthInMeters="3.75" maxJamLengthInVehicles="6" maxJamLengthInMeters="35.04" jamLengthInVehiclesSum="2395" jamLengthInMetersSum="13492.50" meanHaltingDuration="19.41" maxHaltingDuration="56.00" haltingDurationSum="2504.00" meanIntervalHaltingDuration="19.41" maxIntervalHaltingDuration="56.00" intervalHaltingDurationSum="2504.00" startedHalts="148.00" meanVehicleNumber="1.66" maxVehicleNumber="7" />
   <interval begin="0.00" end="3600.00" id="34_15" sampledSeconds="2931.23" nVehEntered="214" nVehLeft="213" nVehSeen="214" meanSpeed="3.13" meanTimeLoss="10.74" meanOccupancy="4.65" maxOccupancy="33.41" meanMaxJamLengthInVehicles="0.50" meanMaxJamLengthInMeters="2.85" maxJamLengthInVehicles="5" maxJamLengthInMeters="30.05" jamLengthInVehiclesSum="1815" jamLengthInMetersSum="10246.66" meanHaltingDuration="18.45" maxHaltingDuration="58.00" haltingDurationSum="1919.00" meanIntervalHaltingDuration="18.45" maxIntervalHaltingDuration="58.00" intervalHaltingDurationSum="1919.00" startedHalts="104.00" meanVehicleNumber="0.84" maxVehicleNumber="6" />
   <interval begin="0.00" end="3600.00" id="34_16" sampledSeconds="35375.85" nVehEntered="370" nVehLeft="350" nVehSeen="370" meanSpeed="1.35" meanTimeLoss="86.34" meanOccupancy="37.06" maxOccupancy="78.80" meanMaxJamLengthInVehicles="8.12" meanMaxJamLengthInMeters="50.12" maxJamLengthInVehicles="21" maxJamLengthInMeters="127.10" jamLengthInVehiclesSum="29796" jamLengthInMetersSum="183860.01" meanHaltingDuration="73.32" maxHaltingDuration="349.00" haltingDurationSum="30208.00" meanIntervalHaltingDuration="73.32" maxIntervalHaltingDuration="349.00" intervalHaltingDurationSum="30208.00" startedHalts="412.00" meanVehicleNumber="9.93" maxVehicleNumber="21" />
   <interval begin="0.00" end="3600.00" id="34_17" sampledSeconds="10393.83" nVehEntered="734" nVehLeft="730" nVehSeen="734" meanSpeed="11.93" meanTimeLoss="1.61" meanOccupancy="6.81" maxOccupancy="26.25" meanMaxJamLengthInVehicles="0.01" meanMaxJamLengthInMeters="0.07" maxJamLengthInVehicles="1" maxJamLengthInMeters="12.00" jamLengthInVehiclesSum="21" jamLengthInMetersSum="252.00" meanHaltingDuration="22.00" maxHaltingDuration="22.00" haltingDurationSum="22.00" meanIntervalHaltingDuration="22.00" maxIntervalHaltingDuration="22.00" intervalHaltingDurationSum="22.00" startedHalts="1.00" meanVehicleNumber="3.06" maxVehicleNumber="11" />
   <interval begin="0.00" end="3600.00" id="34_18" sampledSeconds="6433.59" nVehEntered="550" nVehLeft="547" nVehSeen="550" meanSpeed="12.83" meanTimeLoss="0.84" meanOccupancy="4.20" maxOccupancy="20.98" meanMaxJamLengthInVehicles="0.00" meanMaxJamLengthInMeters="0.00" maxJamLengthInVehicles="0" maxJamLengthInMeters="0.00" jamLengthInVehiclesSum="0" jamLengthInMetersSum="0.00" meanHaltingDuration="0.00" maxHaltingDuration="0.00" haltingDurationSum="0.00" meanIntervalHaltingDuration="0.00" maxIntervalHaltingDuration="0.00" intervalHaltingDurationSum="0.00" startedHalts="0.00" meanVehicleNumber="1.90" maxVehicleNumber="9" />
   <interval begin="0.00" end="3600.00" id="34_19" sampledSeconds="3770.62" nVehEntered="277" nVehLeft="276" nVehSeen="277" meanSpeed="13.27" meanTimeLoss="1.06" meanOccupancy="2.44" maxOccupancy="19.75" meanMaxJamLengthInVehicles="0.00" meanMaxJamLengthInMeters="0.00" maxJamLengthInVehicles="0" maxJamLengthInMeters="0.00" jamLengthInVehiclesSum="0" jamLengthInMetersSum="0.00" meanHaltingDuration="0.00" maxHaltingDuration="0.00" haltingDurationSum="0.00" meanIntervalHaltingDuration="0.00" maxIntervalHaltingDuration="0.00" intervalHaltingDurationSum="0.00" startedHalts="0.00" meanVehicleNumber="1.11" maxVehicleNumber="8" />
   <interval begin="0.00" end="3600.00" id="27_1" sampledSeconds="8959.84" nVehEntered="848" nVehLeft="846" nVehSeen="848" meanSpeed="2.29" meanTimeLoss="8.42" meanOccupancy="49.63" maxOccupancy="85.00" meanMaxJamLengthInVehicles="1.41" meanMaxJamLengthInMeters="7.04" maxJamLengthInVehicles="4" maxJamLengthInMeters="20.00" jamLengthInVehiclesSum="5091" jamLengthInMetersSum="25341.86" meanHaltingDuration="21.95" maxHaltingDuration="59.00" haltingDurationSum="5312.00" meanIntervalHaltingDuration="21.95" maxIntervalHaltingDuration="59.00" intervalHaltingDurationSum="5312.00" startedHalts="247.00" meanVehicleNumber="2.72" maxVehicleNumber="4" />
   <interval begin="0.00" end="3600.00" id="27_2" sampledSeconds="7012.01" nVehEntered="954" nVehLeft="953" nVehSeen="954" meanSpeed="3.19" meanTimeLoss="5.65" meanOccupancy="39.38" maxOccupancy="80.08" meanMaxJamLengthInVehicles="1.15" meanMaxJamLengthInMeters="5.82" maxJamLengthInVehicles="4" maxJamLengthInMeters="20.00" jamLengthInVehiclesSum="4155" jamLengthInMetersSum="20962.14" meanHaltingDuration="19.37" maxHaltingDuration="59.00" haltingDurationSum="4359.00" meanIntervalHaltingDuration="19.37" maxIntervalHaltingDuration="59.00" intervalHaltingDurationSum="4359.00" startedHalts="242.00" meanVehicleNumber="2.21" maxVehicleNumber="4" />
   <interval begin="0.00" end="3600.00" id="27_3" sampledSeconds="5604.81" nVehEntered="633" nVehLeft="632" nVehSeen="633" meanSpeed="2.74" meanTimeLoss="7.14" meanOccupancy="31.40" maxOccupancy="80.08" meanMaxJamLengthInVehicles="0.97" meanMaxJamLengthInMeters="4.83" maxJamLengthInVehicles="4" maxJamLengthInMeters="20.00" jamLengthInVehiclesSum="3477" jamLengthInMetersSum="17398.50" meanHaltingDuration="18.21" maxHaltingDuration="57.00" haltingDurationSum="3679.00" meanIntervalHaltingDuration="18.21" maxIntervalHaltingDuration="57.00" intervalHaltingDurationSum="3679.00" startedHalts="203.00" meanVehicleNumber="1.73" maxVehicleNumber="4" />
   <interval begin="0.00" end="3600.00" id="27_4" sampledSeconds="0.00" nVehEntered="0" nVehLeft="0" nVehSeen="0" meanSpeed="-1.00" meanTimeLoss="-1.00" meanOccupancy="0.00" maxOccupancy="0.00" meanMaxJamLengthInVehicles="0.00" meanMaxJamLengthInMeters="0.00" maxJamLengthInVehicles="0" maxJamLengthInMeters="0.00" jamLengthInVehiclesSum="0" jamLengthInMetersSum="0.00" meanHaltingDuration="0.00" maxHaltingDuration="0.00" haltingDurationSum="0.00" meanIntervalHaltingDuration="0.00" maxIntervalHaltingDuration="0.00" intervalHaltingDurationSum="0.00" startedHalts="0.00" meanVehicleNumber="0.00" maxVehicleNumber="0" />
   <interval begin="0.00" end="3600.00" id="27_5" sampledSeconds="783.62" nVehEntered="22" nVehLeft="21" nVehSeen="22" meanSpeed="0.61" meanTimeLoss="34.05" meanOccupancy="20.93" maxOccupancy="100.00" meanMaxJamLengthInVehicles="0.19" meanMaxJamLengthInMeters="1.99" maxJamLengthInVehicles="1" maxJamLengthInMeters="10.38" jamLengthInVehiclesSum="690" jamLengthInMetersSum="7160.85" meanHaltingDuration="50.28" maxHaltingDuration="104.00" haltingDurationSum="704.00" meanIntervalHaltingDuration="50.28" maxIntervalHaltingDuration="104.00" intervalHaltingDurationSum="704.00" startedHalts="14.00" meanVehicleNumber="0.22" maxVehicleNumber="1" />
   <interval begin="0.00" end="3600.00" id="27_6" sampledSeconds="0.00" nVehEntered="0" nVehLeft="0" nVehSeen="0" meanSpeed="-1.00" meanTimeLoss="-1.00" meanOccupancy="0.00" maxOccupancy="0.00" meanMaxJamLengthInVehicles="0.00" meanMaxJamLengthInMeters="0.00" maxJamLengthInVehicles="0" maxJamLengthInMeters="0.00" jamLengthInVehiclesSum="0" jamLengthInMetersSum="0.00" meanHaltingDuration="0.00" maxHaltingDuration="0.00" haltingDurationSum="0.00" meanIntervalHaltingDuration="0.00" maxIntervalHaltingDuration="0.00" intervalHaltingDurationSum="0.00" startedHalts="0.00" meanVehicleNumber="0.00" maxVehicleNumber="0" />
   <interval begin="0.00" end="3600.00" id="27_7" sampledSeconds="3809.03" nVehEntered="432" nVehLeft="431" nVehSeen="432" meanSpeed="2.76" meanTimeLoss="7.02" meanOccupancy="21.54" maxOccupancy="78.12" meanMaxJamLengthInVehicles="0.67" meanMaxJamLengthInMeters="3.29" maxJamLengthInVehicles="4" maxJamLengthInMeters="20.00" jamLengthInVehiclesSum="2403" jamLengthInMetersSum="11856.57" meanHaltingDuration="21.02" maxHaltingDuration="60.00" haltingDurationSum="2523.00" meanIntervalHaltingDuration="21.02" maxIntervalHaltingDuration="60.00" intervalHaltingDurationSum="2523.00" startedHalts="120.00" meanVehicleNumber="1.18" maxVehicleNumber="4" />
   <interval begin="0.00" end="3600.00" id="27_8" sampledSeconds="3512.42" nVehEntered="412" nVehLeft="411" nVehSeen="412" meanSpeed="2.86" meanTimeLoss="6.78" meanOccupancy="19.92" maxOccupancy="77.98" meanMaxJamLengthInVehicles="0.61" meanMaxJamLengthInMeters="3.06" maxJamLengthInVehicles="4" maxJamLengthInMeters="20.00" jamLengthInVehiclesSum="2202" jamLengthInMetersSum="11012.73" meanHaltingDuration="21.53" maxHaltingDuration="60.00" haltingDurationSum="2304.00" meanIntervalHaltingDuration="21.53" maxIntervalHaltingDuration="60.00" intervalHaltingDurationSum="2304.00" startedHalts="111.00" meanVehicleNumber="1.09" maxVehicleNumber="4" />
   <interval begin="0.00" end="3600.00" id="27_9" sampledSeconds="2198.98" nVehEntered="41" nVehLeft="41" nVehSeen="41" meanSpeed="0.40" meanTimeLoss="52.04" meanOccupancy="14.36" maxOccupancy="72.98" meanMaxJamLengthInVehicles="0.56" meanMaxJamLengthInMeters="2.93" maxJamLengthInVehicles="4" maxJamLengthInMeters="19.10" jamLengthInVehiclesSum="2004" jamLengthInMetersSum="10554.58" meanHaltingDuration="63.59" maxHaltingDuration="149.00" haltingDurationSum="2035.00" meanIntervalHaltingDuration="63.59" maxIntervalHaltingDuration="149.00" intervalHaltingDurationSum="2035.00" startedHalts="34.00" meanVehicleNumber="0.62" maxVehicleNumber="4" />
   <interval begin="0.00" end="3600.00" id="27_10" sampledSeconds="8225.62" nVehEntered="192" nVehLeft="188" nVehSeen="192" meanSpeed="0.57" meanTimeLoss="40.78" meanOccupancy="46.28" maxOccupancy="77.49" meanMaxJamLengthInVehicles="2.03" meanMaxJamLengthInMeters="10.20" maxJamLengthInVehicles="4" maxJamLengthInMeters="20.01" jamLengthInVehiclesSum="7324" jamLengthInMetersSum="36732.05" meanHaltingDuration="65.25" maxHaltingDuration="132.00" haltingDurationSum="7438.00" meanIntervalHaltingDuration="65.25" maxIntervalHaltingDuration="132.00" intervalHaltingDurationSum="7438.00" startedHalts="114.00" meanVehicleNumber="2.34" maxVehicleNumber="4" />
   <interval begin="0.00" end="3600.00" id="27_11" sampledSeconds="1627.46" nVehEntered="35" nVehLeft="35" nVehSeen="35" meanSpeed="0.59" meanTimeLoss="44.48" meanOccupancy="14.58" maxOccupancy="82.49" meanMaxJamLengthInVehicles="0.40" meanMaxJamLengthInMeters="2.85" maxJamLengthInVehicles="3" maxJamLengthInMeters="19.01" jamLengthInVehiclesSum="1451" jamLengthInMetersSum="10247.24" meanHaltingDuration="59.04" maxHaltingDuration="111.00" haltingDurationSum="1476.00" meanIntervalHaltingDuration="59.04" maxIntervalHaltingDuration="111.00" intervalHaltingDurationSum="1476.00" startedHalts="25.00" meanVehicleNumber="0.46" maxVehicleNumber="3" />
   <interval begin="0.00" end="3600.00" id="27_12" sampledSeconds="9874.54" nVehEntered="180" nVehLeft="180" nVehSeen="180" meanSpeed="0.45" meanTimeLoss="52.92" meanOccupancy="55.73" maxOccupancy="77.49" meanMaxJamLengthInVehicles="2.44" meanMaxJamLengthInMeters="12.27" maxJamLengthInVehicles="4" maxJamLengthInMeters="20.01" jamLengthInVehiclesSum="8802" jamLengthInMetersSum="44180.54" meanHaltingDuration="50.86" maxHaltingDuration="135.00" haltingDurationSum="8951.00" meanIntervalHaltingDuration="50.86" maxIntervalHaltingDuration="135.00" intervalHaltingDurationSum="8951.00" startedHalts="184.00" meanVehicleNumber="2.79" maxVehicleNumber="5" />
   <interval begin="0.00" end="3600.00" id="27_13" sampledSeconds="5204.02" nVehEntered="1084" nVehLeft="1083" nVehSeen="1084" meanSpeed="4.90" meanTimeLoss="3.06" meanOccupancy="28.71" maxOccupancy="79.98" meanMaxJamLengthInVehicles="0.50" meanMaxJamLengthInMeters="2.42" maxJamLengthInVehicles="4" maxJamLengthInMeters="20.00" jamLengthInVehiclesSum="1815" jamLengthInMetersSum="8711.38" meanHaltingDuration="12.87" maxHaltingDuration="54.00" haltingDurationSum="1712.00" meanIntervalHaltingDuration="12.87" maxIntervalHaltingDuration="54.00" intervalHaltingDurationSum="1712.00" startedHalts="169.00" meanVehicleNumber="1.73" maxVehicleNumber="4" />
   <interval begin="0.00" end="3600.00" id="27_14" sampledSeconds="3077.78" nVehEntered="1376" nVehLeft="1374" nVehSeen="1376" meanSpeed="9.71" meanTimeLoss="0.68" meanOccupancy="16.88" maxOccupancy="79.95" meanMaxJamLengthInVehicles="0.10" meanMaxJamLengthInMeters="0.42" maxJamLengthInVehicles="4" maxJamLengthInMeters="19.99" jamLengthInVehiclesSum="363" jamLengthInMetersSum="1513.21" meanHaltingDuration="9.85" maxHaltingDuration="29.00" haltingDurationSum="384.00" meanIntervalHaltingDuration="9.85" maxIntervalHaltingDuration="29.00" intervalHaltingDurationSum="384.00" startedHalts="48.00" meanVehicleNumber="1.18" maxVehicleNumber="4" />
   <interval begin="0.00" end="3600.00" id="27_15" sampledSeconds="633.39" nVehEntered="277" nVehLeft="277" nVehSeen="277" meanSpeed="4.69" meanTimeLoss="1.54" meanOccupancy="2.52" maxOccupancy="60.21" meanMaxJamLengthInVehicles="0.08" meanMaxJamLengthInMeters="0.32" maxJamLengthInVehicles="3" maxJamLengthInMeters="14.55" jamLengthInVehiclesSum="275" jamLengthInMetersSum="1153.28" meanHaltingDuration="9.96" maxHaltingDuration="24.00" haltingDurationSum="239.00" meanIntervalHaltingDuration="9.96" maxIntervalHaltingDuration="24.00" intervalHaltingDurationSum="239.00" startedHalts="29.00" meanVehicleNumber="0.22" maxVehicleNumber="3" />
   <interval begin="0.00" end="3600.00" id="27_16" sampledSeconds="793.55" nVehEntered="355" nVehLeft="355" nVehSeen="355" meanSpeed="10.57" meanTimeLoss="0.48" meanOccupancy="4.23" maxOccupancy="60.00" meanMaxJamLengthInVehicles="0.00" meanMaxJamLengthInMeters="0.00" maxJamLengthInVehicles="0" maxJamLengthInMeters="0.00" jamLengthInVehiclesSum="0" jamLengthInMetersSum="0.00" meanHaltingDuration="0.00" maxHaltingDuration="0.00" haltingDurationSum="0.00" meanIntervalHaltingDuration="0.00" maxIntervalHaltingDuration="0.00" intervalHaltingDurationSum="0.00" startedHalts="0.00" meanVehicleNumber="0.32" maxVehicleNumber="3" />
   <interval begin="0.00" end="3600.00" id="27_17" sampledSeconds="736.74" nVehEntered="328" nVehLeft="328" nVehSeen="328" meanSpeed="10.39" meanTimeLoss="0.58" meanOccupancy="4.00" maxOccupancy="50.00" meanMaxJamLengthInVehicles="0.00" meanMaxJamLengthInMeters="0.01" maxJamLengthInVehicles="1" maxJamLengthInMeters="5.00" jamLengthInVehiclesSum="6" jamLengthInMetersSum="23.53" meanHaltingDuration="2.67" maxHaltingDuration="3.00" haltingDurationSum="8.00" meanIntervalHaltingDuration="2.67" maxIntervalHaltingDuration="3.00" intervalHaltingDurationSum="8.00" startedHalts="5.00" meanVehicleNumber="0.29" maxVehicleNumber="3" />
   <interval begin="0.00" end="3600.00" id="27_18" sampledSeconds="489.36" nVehEntered="236" nVehLeft="236" nVehSeen="236" meanSpeed="11.43" meanTimeLoss="0.36" meanOccupancy="2.59" maxOccupancy="49.08" meanMaxJamLengthInVehicles="0.00" meanMaxJamLengthInMeters="0.00" maxJamLengthInVehicles="0" maxJamLengthInMeters="0.00" jamLengthInVehiclesSum="0" jamLengthInMetersSum="0.00" meanHaltingDuration="0.00" maxHaltingDuration="0.00" haltingDurationSum="0.00" meanIntervalHaltingDuration="0.00" maxIntervalHaltingDuration="0.00" intervalHaltingDurationSum="0.00" startedHalts="0.00" meanVehicleNumber="0.20" maxVehicleNumber="2" />
   <interval begin="0.00" end="3600.00" id="27_19" sampledSeconds="1753.65" nVehEntered="413" nVehLeft="412" nVehSeen="413" meanSpeed="5.89" meanTimeLoss="2.42" meanOccupancy="9.99" maxOccupancy="77.48" meanMaxJamLengthInVehicles="0.20" meanMaxJamLengthInMeters="1.02" maxJamLengthInVehicles="4" maxJamLengthInMeters="20.00" jamLengthInVehiclesSum="715" jamLengthInMetersSum="3682.98" meanHaltingDuration="52.07" maxHaltingDuration="93.00" haltingDurationSum="729.00" meanIntervalHaltingDuration="52.07" maxIntervalHaltingDuration="93.00" intervalHaltingDurationSum="729.00" startedHalts="15.00" meanVehicleNumber="0.60" maxVehicleNumber="4" />
   <interval begin="0.00" end="3600.00" id="27_20" sampledSeconds="23903.50" nVehEntered="1086" nVehLeft="1082" nVehSeen="1086" meanSpeed="3.24" meanTimeLoss="16.49" meanOccupancy="39.80" maxOccupancy="77.97" meanMaxJamLengthInVehicles="3.15" meanMaxJamLengthInMeters="19.20" maxJamLengthInVehicles="13" maxJamLengthInMeters="79.52" jamLengthInVehiclesSum="11426" jamLengthInMetersSum="69556.57" meanHaltingDuration="17.95" maxHaltingDuration="59.00" haltingDurationSum="11885.00" meanIntervalHaltingDuration="17.95" maxIntervalHaltingDuration="59.00" intervalHaltingDurationSum="11885.00" startedHalts="716.00" meanVehicleNumber="6.91" maxVehicleNumber="13" />
   <interval begin="0.00" end="3600.00" id="27_21" sampledSeconds="16264.71" nVehEntered="1534" nVehLeft="1530" nVehSeen="1534" meanSpeed="5.35" meanTimeLoss="6.51" meanOccupancy="27.00" maxOccupancy="78.60" meanMaxJamLengthInVehicles="1.85" meanMaxJamLengthInMeters="11.02" maxJamLengthInVehicles="13" maxJamLengthInMeters="79.51" jamLengthInVehiclesSum="6670" jamLengthInMetersSum="39678.32" meanHaltingDuration="15.69" maxHaltingDuration="59.00" haltingDurationSum="7060.00" meanIntervalHaltingDuration="15.69" maxIntervalHaltingDuration="59.00" intervalHaltingDurationSum="7060.00" startedHalts="494.00" meanVehicleNumber="4.82" maxVehicleNumber="13" />
   <interval begin="0.00" end="3600.00" id="27_22" sampledSeconds="9993.32" nVehEntered="633" nVehLeft="632" nVehSeen="633" meanSpeed="3.36" meanTimeLoss="12.06" meanOccupancy="16.06" maxOccupancy="72.94" meanMaxJamLengthInVehicles="1.51" meanMaxJamLengthInMeters="8.92" maxJamLengthInVehicles="12" maxJamLengthInMeters="74.07" jamLengthInVehiclesSum="5451" jamLengthInMetersSum="32129.38" meanHaltingDuration="15.31" maxHaltingDuration="57.00" haltingDurationSum="5832.00" meanIntervalHaltingDuration="15.31" maxIntervalHaltingDuration="57.00" intervalHaltingDurationSum="5832.00" startedHalts="381.00" meanVehicleNumber="2.86" maxVehicleNumber="12" />
   <interval begin="0.00" end="3600.00" id="27_23" sampledSeconds="0.00" nVehEntered="0" nVehLeft="0" nVehSeen="0" meanSpeed="-1.00" meanTimeLoss="-1.00" meanOccupancy="0.00" maxOccupancy="0.00" meanMaxJamLengthInVehicles="0.00" meanMaxJamLengthInMeters="0.00" maxJamLengthInVehicles="0" maxJamLengthInMeters="0.00" jamLengthInVehiclesSum="0" jamLengthInMetersSum="0.00" meanHaltingDuration="0.00" maxHaltingDuration="0.00" haltingDurationSum="0.00" meanIntervalHaltingDuration="0.00" maxIntervalHaltingDuration="0.00" intervalHaltingDurationSum="0.00" startedHalts="0.00" meanVehicleNumber="0.00" maxVehicleNumber="0" />